<simulation verbosity='high'>
   <prng>
      <seed>3848</seed>
      <state shape='(624)'>
       [ 407194691, 2482982956, 3968091159, 1011995676, 1040663443, 
         1714693448, 2216697581, 1437084285, 685556842, 1375324464, 
         2848775347, 1218353286, 3352915523, 1506706539, 4148277925, 
         2221404397, 343264824, 2799873335, 4231841829, 1448465540, 
         1697723903, 4183411130, 3365349431, 1998522492, 2379687659, 
         2026060022, 267489843, 1646531512, 680708892, 3155102668, 
         755011637, 3364156595, 260961044, 1887990490, 2713276502, 
         537967575, 250389822, 1912395464, 741737069, 2106731390, 
         591857535, 1218528944, 1170698522, 3886554131, 1748668408, 
         4100358873, 4153871337, 1102092182, 2689992485, 3735822749, 
         3452661975, 2226814279, 3238420008, 4087889564, 1190722829, 
         354745842, 2015352776, 2946002369, 3120129650, 1747012512, 
         999919670, 3508284618, 3462635509, 1342555780, 313901722, 
         4008108993, 1883210391, 1661832476, 4073364165, 245580873, 
         3207419596, 2234246208, 4194453302, 2470415648, 521760955, 
         2196545757, 2969073271, 2650593641, 3971064117, 1061334042, 
         1012012336, 630968504, 574494371, 1329066855, 3192447153, 
         3838568105, 1236750928, 1150396757, 3320379011, 3054329597, 
         2651895390, 3021907215, 1401820523, 2543243689, 1331967657, 
         115581341, 4149750038, 2614973493, 4242499796, 3660111294, 
         3379312417, 3744246823, 2998745069, 3978811002, 4065864322, 
         3504823759, 394441228, 238202637, 3933679550, 151441311, 
         544887280, 1687324320, 4278336449, 4247943229, 1756662288, 
         571438117, 1918426143, 3972858756, 2960008527, 1054307178, 
         2377356715, 3522312728, 3118492081, 2134876003, 92942599, 
         107035445, 3015818835, 463705757, 522473374, 1636205660, 
         956549303, 813331431, 3468200447, 2846982413, 1586202237, 
         3705699065, 769730852, 427952422, 134771165, 2049733427, 
         3678187234, 3746063893, 1983184509, 385163934, 211627684, 
         1078612032, 2731056527, 2020406742, 2348253871, 3874468591, 
         2957650196, 410977878, 1382007931, 316098873, 3953636377, 
         4261487280, 702533769, 2785458140, 3144433036, 801138894, 
         3609715783, 2422817690, 1057792104, 1133917101, 3622256057, 
         3119777523, 2634666938, 3528784649, 3369487618, 15188511, 
         2245575446, 741684741, 1117944073, 1941216570, 2669799075, 
         948557524, 4030008567, 1367435218, 3137498929, 2495779206, 
         1370151959, 2363418471, 1289415201, 2403179860, 277093564, 
         2064388840, 2381566406, 3051766487, 4058010673, 338804628, 
         303270734, 2499334697, 602561116, 2556790005, 155679351, 
         1324195046, 1601583673, 2163578010, 42743747, 3860875113, 
         3994907799, 1566661946, 2215328127, 258727086, 1911576116, 
         3643005318, 1944863014, 1726344692, 2944166138, 3053923545, 
         1227223422, 4122821384, 660395051, 2255865379, 3468803337, 
         2992658304, 3512434101, 3729244053, 3506171910, 2616106707, 
         1285812241, 667767849, 1540011814, 3131581919, 1252904753, 
         814766348, 4284192334, 2626143408, 3980988327, 1060274116, 
         2106898980, 1472899368, 3675165915, 2214152313, 3737814940, 
         1218044078, 1599287992, 1424963674, 2506087660, 1436355540, 
         383240143, 8220853, 536812749, 4047136539, 1354951341, 
         3827078601, 2655030458, 2469853975, 2616228394, 2984057646, 
         2223339367, 3347167019, 3104451943, 134138329, 2204710308, 
         2269232565, 1775260667, 4030061104, 958454518, 1688433204, 
         977305934, 4275297410, 52499539, 3169840652, 3707132294, 
         3765182780, 3428722634, 2160284119, 1642786801, 2467744391, 
         1831404326, 2879629604, 2425903501, 2490890285, 4186567755, 
         183588168, 1552464834, 3449506324, 1213060470, 2676619518, 
         166605265, 1091901002, 2850865999, 3529882304, 811680661, 
         2355835995, 1863385562, 611467776, 3876354825, 2898338480, 
         2811271027, 329505498, 3446450391, 120371435, 1436200029, 
         1191565385, 641056839, 981072230, 3293209431, 2673178105, 
         2707951358, 1935325210, 673344725, 2426244316, 875195269, 
         2806015331, 25979093, 3305605615, 3812824917, 129353006, 
         3025000349, 1708054554, 799873776, 3391390732, 3359812547, 
         3066610199, 1306004534, 2640356971, 582092913, 3792308290, 
         2219724529, 2394382078, 956747052, 864024388, 1576271702, 
         716628607, 2474711055, 593013345, 2565059978, 2090166884, 
         82863682, 3793582603, 309860053, 1998679607, 3531061050, 
         2143489779, 2107251478, 1636388765, 3615151001, 3342755116, 
         3128978428, 3291612512, 12209069, 3202084955, 862971446, 
         1196114664, 1117570261, 2135666715, 133965553, 3854189319, 
         1134340481, 3667585625, 950304980, 1704826478, 609542539, 
         245823527, 1309142911, 1475154931, 3904799498, 941553533, 
         664813461, 15030770, 1970861721, 1296112732, 2897514820, 
         2657777861, 3725678335, 3974485193, 2039607951, 109676090, 
         1471072266, 2235493607, 1020638685, 1646893937, 3493111835, 
         1003561782, 1132170613, 194256957, 1734839220, 2064432401, 
         3799179663, 525975995, 3475408472, 3559636209, 3187685974, 
         641111796, 2098603406, 1324394833, 807741482, 3637076893, 
         403287742, 4134887242, 2121332198, 1643122588, 1403872088, 
         564140699, 1795116781, 829454160, 2607202575, 3937988505, 
         1923862625, 2996064844, 3013997972, 4275508440, 1353828892, 
         119971488, 782757976, 2719823291, 3516671207, 2001072115, 
         941612038, 2915584535, 886284176, 112891134, 3127229717, 
         4007878922, 403884957, 659288433, 3214478819, 3985893359, 
         533931797, 3402115369, 2058234723, 2045899374, 2322303641, 
         1336418818, 146056605, 539516915, 196208573, 397428114, 
         3570371310, 2217948594, 3784600986, 2666673635, 2790667530, 
         4248500495, 3733302561, 3725100438, 2004001811, 287326073, 
         1417755245, 1092369212, 2914541067, 4109635617, 3523450309, 
         1986771841, 320745988, 2045477630, 1362303, 3328085715, 
         1057612421, 3752759307, 2927039506, 3995058291, 4091293746, 
         3386346782, 3266970168, 2686126817, 2365365987, 3008150497, 
         982330225, 91191789, 3900978745, 3866939128, 3354094885, 
         592034833, 1020187320, 2392222772, 1704615758, 2364002909, 
         4102747066, 3751617198, 3581687089, 1264811007, 3884842375, 
         1667223844, 1978184096, 366068585, 3781730918, 3828433109, 
         3834279544, 1625442850, 1956400235, 1678182165, 1563418764, 
         2446661168, 2718987883, 3478883203, 2762079683, 3622475037, 
         4022295062, 2498274072, 3156647263, 2393730390, 1624587107, 
         4115660893, 1448153063, 4081100308, 1762331371, 3585759236, 
         755087674, 1892077598, 756180995, 2676094563, 183771825, 
         2616678108, 1292678767, 1577574319, 4058539939, 462335780, 
         3900174120, 525764924, 1959036743, 1928037343, 213340025, 
         1982640500, 3716556394, 4205882179, 1264148648, 822421922, 
         2226230422, 1876549739, 1866845996, 1348792772, 1072236830, 
         1616754924, 2743709432, 1961674898, 1692289627, 3049062249, 
         3375074629, 1332417516, 1465931437, 3423216911, 47818870, 
         3335272268, 2111949640, 1763161534, 3819980480, 3272599340, 
         3306934977, 1846331456, 4133667102, 1562416116, 3321742341, 
         4239944777, 3026429343, 1579005000, 37909379, 3434301706, 
         2391432710, 3359800840, 2609978185, 329111561, 3815225195, 
         137274360, 191382297, 2601170146, 2759416995, 3663173456, 
         4195138129, 932690070, 1591057955, 1501398975, 3041260286, 
         3822351424, 2992171272, 831513057, 1483800400, 3345032526, 
         1770125476, 3433314635, 915570894, 3081407420, 2201489713, 
         2286135476, 3149596799, 216082715, 144889062, 2143194456, 
         1914188935, 2784311485, 1052465436, 3604998942, 1011562890, 
         1722272252, 4263057335, 1742366809, 2755888090, 890381553, 
         3998149212, 2882445516, 893026576, 171469204, 3305500263, 
         3753462580, 1586114440, 2141579748, 2156149954, 613069294, 
         1742524759, 1488622627, 4221278172, 143907200, 2992180349, 
         3760723582, 92138941, 1171250993, 585769945, 1044242243, 
         2933267611, 367919895, 2395533672, 1791220024, 4122616306, 
         4058121035, 404661572, 1481971034, 974164793, 4212610283, 
         4036166137, 909621094, 3901865930, 3218429971 ]
      </state>
      <set_pos>296</set_pos>
   </prng>
   <output prefix='simulation'>
      <properties shape='(7)' stride='5'>
       [ step, time{picosecond}, conserved{kelvin}, temperature{kelvin}, kinetic_md{kelvin}, 
         potential{kelvin}, pressure_md{megapascal} ]
      </properties>
      <trajectory filename='pos' stride='100'>positions</trajectory>
      <checkpoint stride='2000'>1</checkpoint>
   </output>
   <ffsocket mode='unix' name='driver'>
      <address>high_density</address>
   </ffsocket>
   <system>
      <forces>
         <force forcefield='driver'>
         </force>
      </forces>
      <ensemble>
         <temperature>  1.27709850e-04</temperature>
         <hamiltonian_weights shape='(1)'> [   1.00000000e+00 ] </hamiltonian_weights>
      </ensemble>
      <motion mode='dynamics'>
         <fixcom>False</fixcom>
         <dynamics mode='nvt'>
            <thermostat mode='pile_g'>
               <tau>  1.03353433e+03</tau>
            </thermostat>
            <timestep>  4.13413730e+01</timestep>
            <nmts shape='(1)'> [ 1 ] </nmts>
         </dynamics>
      </motion>
      <beads natoms='864' nbeads='1'>
         <q shape='(1, 2592)'>
          [   0.00000000e+00,   0.00000000e+00,   0.00000000e+00,   4.36500000e+00,   4.36500000e+00, 
              0.00000000e+00,   4.36500000e+00,   0.00000000e+00,   4.36500000e+00,   0.00000000e+00, 
              4.36500000e+00,   4.36500000e+00,   0.00000000e+00,   0.00000000e+00,   8.73100000e+00, 
              4.36500000e+00,   4.36500000e+00,   8.73100000e+00,   4.36500000e+00,   0.00000000e+00, 
              1.30960000e+01,   0.00000000e+00,   4.36500000e+00,   1.30960000e+01,   0.00000000e+00, 
              0.00000000e+00,   1.74610000e+01,   4.36500000e+00,   4.36500000e+00,   1.74610000e+01, 
              4.36500000e+00,   0.00000000e+00,   2.18260000e+01,   0.00000000e+00,   4.36500000e+00, 
              2.18260000e+01,   0.00000000e+00,   0.00000000e+00,   2.61920000e+01,   4.36500000e+00, 
              4.36500000e+00,   2.61920000e+01,   4.36500000e+00,   0.00000000e+00,   3.05570000e+01, 
              0.00000000e+00,   4.36500000e+00,   3.05570000e+01,   0.00000000e+00,   0.00000000e+00, 
              3.49220000e+01,   4.36500000e+00,   4.36500000e+00,   3.49220000e+01,   4.36500000e+00, 
              0.00000000e+00,   3.92870000e+01,   0.00000000e+00,   4.36500000e+00,   3.92870000e+01, 
              0.00000000e+00,   0.00000000e+00,   4.36530000e+01,   4.36500000e+00,   4.36500000e+00, 
              4.36530000e+01,   4.36500000e+00,   0.00000000e+00,   4.80180000e+01,   0.00000000e+00, 
              4.36500000e+00,   4.80180000e+01,   0.00000000e+00,   8.73100000e+00,   0.00000000e+00, 
              4.36500000e+00,   1.30960000e+01,   0.00000000e+00,   4.36500000e+00,   8.73100000e+00, 
              4.36500000e+00,   0.00000000e+00,   1.30960000e+01,   4.36500000e+00,   0.00000000e+00, 
              8.73100000e+00,   8.73100000e+00,   4.36500000e+00,   1.30960000e+01,   8.73100000e+00, 
              4.36500000e+00,   8.73100000e+00,   1.30960000e+01,   0.00000000e+00,   1.30960000e+01, 
              1.30960000e+01,   0.00000000e+00,   8.73100000e+00,   1.74610000e+01,   4.36500000e+00, 
              1.30960000e+01,   1.74610000e+01,   4.36500000e+00,   8.73100000e+00,   2.18260000e+01, 
              0.00000000e+00,   1.30960000e+01,   2.18260000e+01,   0.00000000e+00,   8.73100000e+00, 
              2.61920000e+01,   4.36500000e+00,   1.30960000e+01,   2.61920000e+01,   4.36500000e+00, 
              8.73100000e+00,   3.05570000e+01,   0.00000000e+00,   1.30960000e+01,   3.05570000e+01, 
              0.00000000e+00,   8.73100000e+00,   3.49220000e+01,   4.36500000e+00,   1.30960000e+01, 
              3.49220000e+01,   4.36500000e+00,   8.73100000e+00,   3.92870000e+01,   0.00000000e+00, 
              1.30960000e+01,   3.92870000e+01,   0.00000000e+00,   8.73100000e+00,   4.36530000e+01, 
              4.36500000e+00,   1.30960000e+01,   4.36530000e+01,   4.36500000e+00,   8.73100000e+00, 
              4.80180000e+01,   0.00000000e+00,   1.30960000e+01,   4.80180000e+01,   0.00000000e+00, 
              1.74610000e+01,   0.00000000e+00,   4.36500000e+00,   2.18260000e+01,   0.00000000e+00, 
              4.36500000e+00,   1.74610000e+01,   4.36500000e+00,   0.00000000e+00,   2.18260000e+01, 
              4.36500000e+00,   0.00000000e+00,   1.74610000e+01,   8.73100000e+00,   4.36500000e+00, 
              2.18260000e+01,   8.73100000e+00,   4.36500000e+00,   1.74610000e+01,   1.30960000e+01, 
              0.00000000e+00,   2.18260000e+01,   1.30960000e+01,   0.00000000e+00,   1.74610000e+01, 
              1.74610000e+01,   4.36500000e+00,   2.18260000e+01,   1.74610000e+01,   4.36500000e+00, 
              1.74610000e+01,   2.18260000e+01,   0.00000000e+00,   2.18260000e+01,   2.18260000e+01, 
              0.00000000e+00,   1.74610000e+01,   2.61920000e+01,   4.36500000e+00,   2.18260000e+01, 
              2.61920000e+01,   4.36500000e+00,   1.74610000e+01,   3.05570000e+01,   0.00000000e+00, 
              2.18260000e+01,   3.05570000e+01,   0.00000000e+00,   1.74610000e+01,   3.49220000e+01, 
              4.36500000e+00,   2.18260000e+01,   3.49220000e+01,   4.36500000e+00,   1.74610000e+01, 
              3.92870000e+01,   0.00000000e+00,   2.18260000e+01,   3.92870000e+01,   0.00000000e+00, 
              1.74610000e+01,   4.36530000e+01,   4.36500000e+00,   2.18260000e+01,   4.36530000e+01, 
              4.36500000e+00,   1.74610000e+01,   4.80180000e+01,   0.00000000e+00,   2.18260000e+01, 
              4.80180000e+01,   0.00000000e+00,   2.61920000e+01,   0.00000000e+00,   4.36500000e+00, 
              3.05570000e+01,   0.00000000e+00,   4.36500000e+00,   2.61920000e+01,   4.36500000e+00, 
              0.00000000e+00,   3.05570000e+01,   4.36500000e+00,   0.00000000e+00,   2.61920000e+01, 
              8.73100000e+00,   4.36500000e+00,   3.05570000e+01,   8.73100000e+00,   4.36500000e+00, 
              2.61920000e+01,   1.30960000e+01,   0.00000000e+00,   3.05570000e+01,   1.30960000e+01, 
              0.00000000e+00,   2.61920000e+01,   1.74610000e+01,   4.36500000e+00,   3.05570000e+01, 
              1.74610000e+01,   4.36500000e+00,   2.61920000e+01,   2.18260000e+01,   0.00000000e+00, 
              3.05570000e+01,   2.18260000e+01,   0.00000000e+00,   2.61920000e+01,   2.61920000e+01, 
              4.36500000e+00,   3.05570000e+01,   2.61920000e+01,   4.36500000e+00,   2.61920000e+01, 
              3.05570000e+01,   0.00000000e+00,   3.05570000e+01,   3.05570000e+01,   0.00000000e+00, 
              2.61920000e+01,   3.49220000e+01,   4.36500000e+00,   3.05570000e+01,   3.49220000e+01, 
              4.36500000e+00,   2.61920000e+01,   3.92870000e+01,   0.00000000e+00,   3.05570000e+01, 
              3.92870000e+01,   0.00000000e+00,   2.61920000e+01,   4.36530000e+01,   4.36500000e+00, 
              3.05570000e+01,   4.36530000e+01,   4.36500000e+00,   2.61920000e+01,   4.80180000e+01, 
              0.00000000e+00,   3.05570000e+01,   4.80180000e+01,   0.00000000e+00,   3.49220000e+01, 
              0.00000000e+00,   4.36500000e+00,   3.92870000e+01,   0.00000000e+00,   4.36500000e+00, 
              3.49220000e+01,   4.36500000e+00,   0.00000000e+00,   3.92870000e+01,   4.36500000e+00, 
              0.00000000e+00,   3.49220000e+01,   8.73100000e+00,   4.36500000e+00,   3.92870000e+01, 
              8.73100000e+00,   4.36500000e+00,   3.49220000e+01,   1.30960000e+01,   0.00000000e+00, 
              3.92870000e+01,   1.30960000e+01,   0.00000000e+00,   3.49220000e+01,   1.74610000e+01, 
              4.36500000e+00,   3.92870000e+01,   1.74610000e+01,   4.36500000e+00,   3.49220000e+01, 
              2.18260000e+01,   0.00000000e+00,   3.92870000e+01,   2.18260000e+01,   0.00000000e+00, 
              3.49220000e+01,   2.61920000e+01,   4.36500000e+00,   3.92870000e+01,   2.61920000e+01, 
              4.36500000e+00,   3.49220000e+01,   3.05570000e+01,   0.00000000e+00,   3.92870000e+01, 
              3.05570000e+01,   0.00000000e+00,   3.49220000e+01,   3.49220000e+01,   4.36500000e+00, 
              3.92870000e+01,   3.49220000e+01,   4.36500000e+00,   3.49220000e+01,   3.92870000e+01, 
              0.00000000e+00,   3.92870000e+01,   3.92870000e+01,   0.00000000e+00,   3.49220000e+01, 
              4.36530000e+01,   4.36500000e+00,   3.92870000e+01,   4.36530000e+01,   4.36500000e+00, 
              3.49220000e+01,   4.80180000e+01,   0.00000000e+00,   3.92870000e+01,   4.80180000e+01, 
              0.00000000e+00,   4.36530000e+01,   0.00000000e+00,   4.36500000e+00,   4.80180000e+01, 
              0.00000000e+00,   4.36500000e+00,   4.36530000e+01,   4.36500000e+00,   0.00000000e+00, 
              4.80180000e+01,   4.36500000e+00,   0.00000000e+00,   4.36530000e+01,   8.73100000e+00, 
              4.36500000e+00,   4.80180000e+01,   8.73100000e+00,   4.36500000e+00,   4.36530000e+01, 
              1.30960000e+01,   0.00000000e+00,   4.80180000e+01,   1.30960000e+01,   0.00000000e+00, 
              4.36530000e+01,   1.74610000e+01,   4.36500000e+00,   4.80180000e+01,   1.74610000e+01, 
              4.36500000e+00,   4.36530000e+01,   2.18260000e+01,   0.00000000e+00,   4.80180000e+01, 
              2.18260000e+01,   0.00000000e+00,   4.36530000e+01,   2.61920000e+01,   4.36500000e+00, 
              4.80180000e+01,   2.61920000e+01,   4.36500000e+00,   4.36530000e+01,   3.05570000e+01, 
              0.00000000e+00,   4.80180000e+01,   3.05570000e+01,   0.00000000e+00,   4.36530000e+01, 
              3.49220000e+01,   4.36500000e+00,   4.80180000e+01,   3.49220000e+01,   4.36500000e+00, 
              4.36530000e+01,   3.92870000e+01,   0.00000000e+00,   4.80180000e+01,   3.92870000e+01, 
              0.00000000e+00,   4.36530000e+01,   4.36530000e+01,   4.36500000e+00,   4.80180000e+01, 
              4.36530000e+01,   4.36500000e+00,   4.36530000e+01,   4.80180000e+01,   0.00000000e+00, 
              4.80180000e+01,   4.80180000e+01,   8.73100000e+00,   0.00000000e+00,   0.00000000e+00, 
              1.30960000e+01,   4.36500000e+00,   0.00000000e+00,   1.30960000e+01,   0.00000000e+00, 
              4.36500000e+00,   8.73100000e+00,   4.36500000e+00,   4.36500000e+00,   8.73100000e+00, 
              0.00000000e+00,   8.73100000e+00,   1.30960000e+01,   4.36500000e+00,   8.73100000e+00, 
              1.30960000e+01,   0.00000000e+00,   1.30960000e+01,   8.73100000e+00,   4.36500000e+00, 
              1.30960000e+01,   8.73100000e+00,   0.00000000e+00,   1.74610000e+01,   1.30960000e+01, 
              4.36500000e+00,   1.74610000e+01,   1.30960000e+01,   0.00000000e+00,   2.18260000e+01, 
              8.73100000e+00,   4.36500000e+00,   2.18260000e+01,   8.73100000e+00,   0.00000000e+00, 
              2.61920000e+01,   1.30960000e+01,   4.36500000e+00,   2.61920000e+01,   1.30960000e+01, 
              0.00000000e+00,   3.05570000e+01,   8.73100000e+00,   4.36500000e+00,   3.05570000e+01, 
              8.73100000e+00,   0.00000000e+00,   3.49220000e+01,   1.30960000e+01,   4.36500000e+00, 
              3.49220000e+01,   1.30960000e+01,   0.00000000e+00,   3.92870000e+01,   8.73100000e+00, 
              4.36500000e+00,   3.92870000e+01,   8.73100000e+00,   0.00000000e+00,   4.36530000e+01, 
              1.30960000e+01,   4.36500000e+00,   4.36530000e+01,   1.30960000e+01,   0.00000000e+00, 
              4.80180000e+01,   8.73100000e+00,   4.36500000e+00,   4.80180000e+01,   8.73100000e+00, 
              8.73100000e+00,   0.00000000e+00,   1.30960000e+01,   1.30960000e+01,   0.00000000e+00, 
              1.30960000e+01,   8.73100000e+00,   4.36500000e+00,   8.73100000e+00,   1.30960000e+01, 
              4.36500000e+00,   8.73100000e+00,   8.73100000e+00,   8.73100000e+00,   1.30960000e+01, 
              1.30960000e+01,   8.73100000e+00,   1.30960000e+01,   8.73100000e+00,   1.30960000e+01, 
              8.73100000e+00,   1.30960000e+01,   1.30960000e+01,   8.73100000e+00,   8.73100000e+00, 
              1.74610000e+01,   1.30960000e+01,   1.30960000e+01,   1.74610000e+01,   1.30960000e+01, 
              8.73100000e+00,   2.18260000e+01,   8.73100000e+00,   1.30960000e+01,   2.18260000e+01, 
              8.73100000e+00,   8.73100000e+00,   2.61920000e+01,   1.30960000e+01,   1.30960000e+01, 
              2.61920000e+01,   1.30960000e+01,   8.73100000e+00,   3.05570000e+01,   8.73100000e+00, 
              1.30960000e+01,   3.05570000e+01,   8.73100000e+00,   8.73100000e+00,   3.49220000e+01, 
              1.30960000e+01,   1.30960000e+01,   3.49220000e+01,   1.30960000e+01,   8.73100000e+00, 
              3.92870000e+01,   8.73100000e+00,   1.30960000e+01,   3.92870000e+01,   8.73100000e+00, 
              8.73100000e+00,   4.36530000e+01,   1.30960000e+01,   1.30960000e+01,   4.36530000e+01, 
              1.30960000e+01,   8.73100000e+00,   4.80180000e+01,   8.73100000e+00,   1.30960000e+01, 
              4.80180000e+01,   8.73100000e+00,   1.74610000e+01,   0.00000000e+00,   1.30960000e+01, 
              2.18260000e+01,   0.00000000e+00,   1.30960000e+01,   1.74610000e+01,   4.36500000e+00, 
              8.73100000e+00,   2.18260000e+01,   4.36500000e+00,   8.73100000e+00,   1.74610000e+01, 
              8.73100000e+00,   1.30960000e+01,   2.18260000e+01,   8.73100000e+00,   1.30960000e+01, 
              1.74610000e+01,   1.30960000e+01,   8.73100000e+00,   2.18260000e+01,   1.30960000e+01, 
              8.73100000e+00,   1.74610000e+01,   1.74610000e+01,   1.30960000e+01,   2.18260000e+01, 
              1.74610000e+01,   1.30960000e+01,   1.74610000e+01,   2.18260000e+01,   8.73100000e+00, 
              2.18260000e+01,   2.18260000e+01,   8.73100000e+00,   1.74610000e+01,   2.61920000e+01, 
              1.30960000e+01,   2.18260000e+01,   2.61920000e+01,   1.30960000e+01,   1.74610000e+01, 
              3.05570000e+01,   8.73100000e+00,   2.18260000e+01,   3.05570000e+01,   8.73100000e+00, 
              1.74610000e+01,   3.49220000e+01,   1.30960000e+01,   2.18260000e+01,   3.49220000e+01, 
              1.30960000e+01,   1.74610000e+01,   3.92870000e+01,   8.73100000e+00,   2.18260000e+01, 
              3.92870000e+01,   8.73100000e+00,   1.74610000e+01,   4.36530000e+01,   1.30960000e+01, 
              2.18260000e+01,   4.36530000e+01,   1.30960000e+01,   1.74610000e+01,   4.80180000e+01, 
              8.73100000e+00,   2.18260000e+01,   4.80180000e+01,   8.73100000e+00,   2.61920000e+01, 
              0.00000000e+00,   1.30960000e+01,   3.05570000e+01,   0.00000000e+00,   1.30960000e+01, 
              2.61920000e+01,   4.36500000e+00,   8.73100000e+00,   3.05570000e+01,   4.36500000e+00, 
              8.73100000e+00,   2.61920000e+01,   8.73100000e+00,   1.30960000e+01,   3.05570000e+01, 
              8.73100000e+00,   1.30960000e+01,   2.61920000e+01,   1.30960000e+01,   8.73100000e+00, 
              3.05570000e+01,   1.30960000e+01,   8.73100000e+00,   2.61920000e+01,   1.74610000e+01, 
              1.30960000e+01,   3.05570000e+01,   1.74610000e+01,   1.30960000e+01,   2.61920000e+01, 
              2.18260000e+01,   8.73100000e+00,   3.05570000e+01,   2.18260000e+01,   8.73100000e+00, 
              2.61920000e+01,   2.61920000e+01,   1.30960000e+01,   3.05570000e+01,   2.61920000e+01, 
              1.30960000e+01,   2.61920000e+01,   3.05570000e+01,   8.73100000e+00,   3.05570000e+01, 
              3.05570000e+01,   8.73100000e+00,   2.61920000e+01,   3.49220000e+01,   1.30960000e+01, 
              3.05570000e+01,   3.49220000e+01,   1.30960000e+01,   2.61920000e+01,   3.92870000e+01, 
              8.73100000e+00,   3.05570000e+01,   3.92870000e+01,   8.73100000e+00,   2.61920000e+01, 
              4.36530000e+01,   1.30960000e+01,   3.05570000e+01,   4.36530000e+01,   1.30960000e+01, 
              2.61920000e+01,   4.80180000e+01,   8.73100000e+00,   3.05570000e+01,   4.80180000e+01, 
              8.73100000e+00,   3.49220000e+01,   0.00000000e+00,   1.30960000e+01,   3.92870000e+01, 
              0.00000000e+00,   1.30960000e+01,   3.49220000e+01,   4.36500000e+00,   8.73100000e+00, 
              3.92870000e+01,   4.36500000e+00,   8.73100000e+00,   3.49220000e+01,   8.73100000e+00, 
              1.30960000e+01,   3.92870000e+01,   8.73100000e+00,   1.30960000e+01,   3.49220000e+01, 
              1.30960000e+01,   8.73100000e+00,   3.92870000e+01,   1.30960000e+01,   8.73100000e+00, 
              3.49220000e+01,   1.74610000e+01,   1.30960000e+01,   3.92870000e+01,   1.74610000e+01, 
              1.30960000e+01,   3.49220000e+01,   2.18260000e+01,   8.73100000e+00,   3.92870000e+01, 
              2.18260000e+01,   8.73100000e+00,   3.49220000e+01,   2.61920000e+01,   1.30960000e+01, 
              3.92870000e+01,   2.61920000e+01,   1.30960000e+01,   3.49220000e+01,   3.05570000e+01, 
              8.73100000e+00,   3.92870000e+01,   3.05570000e+01,   8.73100000e+00,   3.49220000e+01, 
              3.49220000e+01,   1.30960000e+01,   3.92870000e+01,   3.49220000e+01,   1.30960000e+01, 
              3.49220000e+01,   3.92870000e+01,   8.73100000e+00,   3.92870000e+01,   3.92870000e+01, 
              8.73100000e+00,   3.49220000e+01,   4.36530000e+01,   1.30960000e+01,   3.92870000e+01, 
              4.36530000e+01,   1.30960000e+01,   3.49220000e+01,   4.80180000e+01,   8.73100000e+00, 
              3.92870000e+01,   4.80180000e+01,   8.73100000e+00,   4.36530000e+01,   0.00000000e+00, 
              1.30960000e+01,   4.80180000e+01,   0.00000000e+00,   1.30960000e+01,   4.36530000e+01, 
              4.36500000e+00,   8.73100000e+00,   4.80180000e+01,   4.36500000e+00,   8.73100000e+00, 
              4.36530000e+01,   8.73100000e+00,   1.30960000e+01,   4.80180000e+01,   8.73100000e+00, 
              1.30960000e+01,   4.36530000e+01,   1.30960000e+01,   8.73100000e+00,   4.80180000e+01, 
              1.30960000e+01,   8.73100000e+00,   4.36530000e+01,   1.74610000e+01,   1.30960000e+01, 
              4.80180000e+01,   1.74610000e+01,   1.30960000e+01,   4.36530000e+01,   2.18260000e+01, 
              8.73100000e+00,   4.80180000e+01,   2.18260000e+01,   8.73100000e+00,   4.36530000e+01, 
              2.61920000e+01,   1.30960000e+01,   4.80180000e+01,   2.61920000e+01,   1.30960000e+01, 
              4.36530000e+01,   3.05570000e+01,   8.73100000e+00,   4.80180000e+01,   3.05570000e+01, 
              8.73100000e+00,   4.36530000e+01,   3.49220000e+01,   1.30960000e+01,   4.80180000e+01, 
              3.49220000e+01,   1.30960000e+01,   4.36530000e+01,   3.92870000e+01,   8.73100000e+00, 
              4.80180000e+01,   3.92870000e+01,   8.73100000e+00,   4.36530000e+01,   4.36530000e+01, 
              1.30960000e+01,   4.80180000e+01,   4.36530000e+01,   1.30960000e+01,   4.36530000e+01, 
              4.80180000e+01,   8.73100000e+00,   4.80180000e+01,   4.80180000e+01,   1.74610000e+01, 
              0.00000000e+00,   0.00000000e+00,   2.18260000e+01,   4.36500000e+00,   0.00000000e+00, 
              2.18260000e+01,   0.00000000e+00,   4.36500000e+00,   1.74610000e+01,   4.36500000e+00, 
              4.36500000e+00,   1.74610000e+01,   0.00000000e+00,   8.73100000e+00,   2.18260000e+01, 
              4.36500000e+00,   8.73100000e+00,   2.18260000e+01,   0.00000000e+00,   1.30960000e+01, 
              1.74610000e+01,   4.36500000e+00,   1.30960000e+01,   1.74610000e+01,   0.00000000e+00, 
              1.74610000e+01,   2.18260000e+01,   4.36500000e+00,   1.74610000e+01,   2.18260000e+01, 
              0.00000000e+00,   2.18260000e+01,   1.74610000e+01,   4.36500000e+00,   2.18260000e+01, 
              1.74610000e+01,   0.00000000e+00,   2.61920000e+01,   2.18260000e+01,   4.36500000e+00, 
              2.61920000e+01,   2.18260000e+01,   0.00000000e+00,   3.05570000e+01,   1.74610000e+01, 
              4.36500000e+00,   3.05570000e+01,   1.74610000e+01,   0.00000000e+00,   3.49220000e+01, 
              2.18260000e+01,   4.36500000e+00,   3.49220000e+01,   2.18260000e+01,   0.00000000e+00, 
              3.92870000e+01,   1.74610000e+01,   4.36500000e+00,   3.92870000e+01,   1.74610000e+01, 
              0.00000000e+00,   4.36530000e+01,   2.18260000e+01,   4.36500000e+00,   4.36530000e+01, 
              2.18260000e+01,   0.00000000e+00,   4.80180000e+01,   1.74610000e+01,   4.36500000e+00, 
              4.80180000e+01,   1.74610000e+01,   8.73100000e+00,   0.00000000e+00,   2.18260000e+01, 
              1.30960000e+01,   0.00000000e+00,   2.18260000e+01,   8.73100000e+00,   4.36500000e+00, 
              1.74610000e+01,   1.30960000e+01,   4.36500000e+00,   1.74610000e+01,   8.73100000e+00, 
              8.73100000e+00,   2.18260000e+01,   1.30960000e+01,   8.73100000e+00,   2.18260000e+01, 
              8.73100000e+00,   1.30960000e+01,   1.74610000e+01,   1.30960000e+01,   1.30960000e+01, 
              1.74610000e+01,   8.73100000e+00,   1.74610000e+01,   2.18260000e+01,   1.30960000e+01, 
              1.74610000e+01,   2.18260000e+01,   8.73100000e+00,   2.18260000e+01,   1.74610000e+01, 
              1.30960000e+01,   2.18260000e+01,   1.74610000e+01,   8.73100000e+00,   2.61920000e+01, 