864
# CELL(abcABC):   52.38300    52.38300    52.38300    90.00000    90.00000    90.00000  Step:           0  Bead:       0 positions{atomic_unit}  cell{atomic_unit}
      Ne  0.00000e+00  0.00000e+00  0.00000e+00
      Ne  4.36500e+00  4.36500e+00  0.00000e+00
      Ne  4.36500e+00  0.00000e+00  4.36500e+00
      Ne  0.00000e+00  4.36500e+00  4.36500e+00
      Ne  0.00000e+00  0.00000e+00  8.73100e+00
      Ne  4.36500e+00  4.36500e+00  8.73100e+00
      Ne  4.36500e+00  0.00000e+00  1.30960e+01
      Ne  0.00000e+00  4.36500e+00  1.30960e+01
      Ne  0.00000e+00  0.00000e+00  1.74610e+01
      Ne  4.36500e+00  4.36500e+00  1.74610e+01
      Ne  4.36500e+00  0.00000e+00  2.18260e+01
      Ne  0.00000e+00  4.36500e+00  2.18260e+01
      Ne  0.00000e+00  0.00000e+00  2.61920e+01
      Ne  4.36500e+00  4.36500e+00  2.61920e+01
      Ne  4.36500e+00  0.00000e+00  3.05570e+01
      Ne  0.00000e+00  4.36500e+00  3.05570e+01
      Ne  0.00000e+00  0.00000e+00  3.49220e+01
      Ne  4.36500e+00  4.36500e+00  3.49220e+01
      Ne  4.36500e+00  0.00000e+00  3.92870e+01
      Ne  0.00000e+00  4.36500e+00  3.92870e+01
      Ne  0.00000e+00  0.00000e+00  4.36530e+01
      Ne  4.36500e+00  4.36500e+00  4.36530e+01
      Ne  4.36500e+00  0.00000e+00  4.80180e+01
      Ne  0.00000e+00  4.36500e+00  4.80180e+01
      Ne  0.00000e+00  8.73100e+00  0.00000e+00
      Ne  4.36500e+00  1.30960e+01  0.00000e+00
      Ne  4.36500e+00  8.73100e+00  4.36500e+00
      Ne  0.00000e+00  1.30960e+01  4.36500e+00
      Ne  0.00000e+00  8.73100e+00  8.73100e+00
      Ne  4.36500e+00  1.30960e+01  8.73100e+00
      Ne  4.36500e+00  8.73100e+00  1.30960e+01
      Ne  0.00000e+00  1.30960e+01  1.30960e+01
      Ne  0.00000e+00  8.73100e+00  1.74610e+01
      Ne  4.36500e+00  1.30960e+01  1.74610e+01
      Ne  4.36500e+00  8.73100e+00  2.18260e+01
      Ne  0.00000e+00  1.30960e+01  2.18260e+01
      Ne  0.00000e+00  8.73100e+00  2.61920e+01
      Ne  4.36500e+00  1.30960e+01  2.61920e+01
      Ne  4.36500e+00  8.73100e+00  3.05570e+01
      Ne  0.00000e+00  1.30960e+01  3.05570e+01
      Ne  0.00000e+00  8.73100e+00  3.49220e+01
      Ne  4.36500e+00  1.30960e+01  3.49220e+01
      Ne  4.36500e+00  8.73100e+00  3.92870e+01
      Ne  0.00000e+00  1.30960e+01  3.92870e+01
      Ne  0.00000e+00  8.73100e+00  4.36530e+01
      Ne  4.36500e+00  1.30960e+01  4.36530e+01
      Ne  4.36500e+00  8.73100e+00  4.80180e+01
      Ne  0.00000e+00  1.30960e+01  4.80180e+01
      Ne  0.00000e+00  1.74610e+01  0.00000e+00
      Ne  4.36500e+00  2.18260e+01  0.00000e+00
      Ne  4.36500e+00  1.74610e+01  4.36500e+00
      Ne  0.00000e+00  2.18260e+01  4.36500e+00
      Ne  0.00000e+00  1.74610e+01  8.73100e+00
      Ne  4.36500e+00  2.18260e+01  8.73100e+00
      Ne  4.36500e+00  1.74610e+01  1.30960e+01
      Ne  0.00000e+00  2.18260e+01  1.30960e+01
      Ne  0.00000e+00  1.74610e+01  1.74610e+01
      Ne  4.36500e+00  2.18260e+01  1.74610e+01
      Ne  4.36500e+00  1.74610e+01  2.18260e+01
      Ne  0.00000e+00  2.18260e+01  2.18260e+01
      Ne  0.00000e+00  1.74610e+01  2.61920e+01
      Ne  4.36500e+00  2.18260e+01  2.61920e+01
      Ne  4.36500e+00  1.74610e+01  3.05570e+01
      Ne  0.00000e+00  2.18260e+01  3.05570e+01
      Ne  0.00000e+00  1.74610e+01  3.49220e+01
      Ne  4.36500e+00  2.18260e+01  3.49220e+01
      Ne  4.36500e+00  1.74610e+01  3.92870e+01
      Ne  0.00000e+00  2.18260e+01  3.92870e+01
      Ne  0.00000e+00  1.74610e+01  4.36530e+01
      Ne  4.36500e+00  2.18260e+01  4.36530e+01
      Ne  4.36500e+00  1.74610e+01  4.80180e+01
      Ne  0.00000e+00  2.18260e+01  4.80180e+01
      Ne  0.00000e+00  2.61920e+01  0.00000e+00
      Ne  4.36500e+00  3.05570e+01  0.00000e+00
      Ne  4.36500e+00  2.61920e+01  4.36500e+00
      Ne  0.00000e+00  3.05570e+01  4.36500e+00
      Ne  0.00000e+00  2.61920e+01  8.73100e+00
      Ne  4.36500e+00  3.05570e+01  8.73100e+00
      Ne  4.36500e+00  2.61920e+01  1.30960e+01
      Ne  0.00000e+00  3.05570e+01  1.30960e+01
      Ne  0.00000e+00  2.61920e+01  1.74610e+01
      Ne  4.36500e+00  3.05570e+01  1.74610e+01
      Ne  4.36500e+00  2.61920e+01  2.18260e+01
      Ne  0.00000e+00  3.05570e+01  2.18260e+01
      Ne  0.00000e+00  2.61920e+01  2.61920e+01
      Ne  4.36500e+00  3.05570e+01  2.61920e+01
      Ne  4.36500e+00  2.61920e+01  3.05570e+01
      Ne  0.00000e+00  3.05570e+01  3.05570e+01
      Ne  0.00000e+00  2.61920e+01  3.49220e+01
      Ne  4.36500e+00  3.05570e+01  3.49220e+01
      Ne  4.36500e+00  2.61920e+01  3.92870e+01
      Ne  0.00000e+00  3.05570e+01  3.92870e+01
      Ne  0.00000e+00  2.61920e+01  4.36530e+01
      Ne  4.36500e+00  3.05570e+01  4.36530e+01
      Ne  4.36500e+00  2.61920e+01  4.80180e+01
      Ne  0.00000e+00  3.05570e+01  4.80180e+01
      Ne  0.00000e+00  3.49220e+01  0.00000e+00
      Ne  4.36500e+00  3.92870e+01  0.00000e+00
      Ne  4.36500e+00  3.49220e+01  4.36500e+00
      Ne  0.00000e+00  3.92870e+01  4.36500e+00
      Ne  0.00000e+00  3.49220e+01  8.73100e+00
      Ne  4.36500e+00  3.92870e+01  8.73100e+00
      Ne  4.36500e+00  3.49220e+01  1.30960e+01
      Ne  0.00000e+00  3.92870e+01  1.30960e+01
      Ne  0.00000e+00  3.49220e+01  1.74610e+01
      Ne  4.36500e+00  3.92870e+01  1.74610e+01
      Ne  4.36500e+00  3.49220e+01  2.18260e+01
      Ne  0.00000e+00  3.92870e+01  2.18260e+01
      Ne  0.00000e+00  3.49220e+01  2.61920e+01
      Ne  4.36500e+00  3.92870e+01  2.61920e+01
      Ne  4.36500e+00  3.49220e+01  3.05570e+01
      Ne  0.00000e+00  3.92870e+01  3.05570e+01
      Ne  0.00000e+00  3.49220e+01  3.49220e+01
      Ne  4.36500e+00  3.92870e+01  3.49220e+01
      Ne  4.36500e+00  3.49220e+01  3.92870e+01
      Ne  0.00000e+00  3.92870e+01  3.92870e+01
      Ne  0.00000e+00  3.49220e+01  4.36530e+01
      Ne  4.36500e+00  3.92870e+01  4.36530e+01
      Ne  4.36500e+00  3.49220e+01  4.80180e+01
      Ne  0.00000e+00  3.92870e+01  4.80180e+01
      Ne  0.00000e+00  4.36530e+01  0.00000e+00
      Ne  4.36500e+00  4.80180e+01  0.00000e+00
      Ne  4.36500e+00  4.36530e+01  4.36500e+00
      Ne  0.00000e+00  4.80180e+01  4.36500e+00
      Ne  0.00000e+00  4.36530e+01  8.73100e+00
      Ne  4.36500e+00  4.80180e+01  8.73100e+00
      Ne  4.36500e+00  4.36530e+01  1.30960e+01
      Ne  0.00000e+00  4.80180e+01  1.30960e+01
      Ne  0.00000e+00  4.36530e+01  1.74610e+01
      Ne  4.36500e+00  4.80180e+01  1.74610e+01
      Ne  4.36500e+00  4.36530e+01  2.18260e+01
      Ne  0.00000e+00  4.80180e+01  2.18260e+01
      Ne  0.00000e+00  4.36530e+01  2.61920e+01
      Ne  4.36500e+00  4.80180e+01  2.61920e+01
      Ne  4.36500e+00  4.36530e+01  3.05570e+01
      Ne  0.00000e+00  4.80180e+01  3.05570e+01
      Ne  0.00000e+00  4.36530e+01  3.49220e+01
      Ne  4.36500e+00  4.80180e+01  3.49220e+01
      Ne  4.36500e+00  4.36530e+01  3.92870e+01
      Ne  0.00000e+00  4.80180e+01  3.92870e+01
      Ne  0.00000e+00  4.36530e+01  4.36530e+01
      Ne  4.36500e+00  4.80180e+01  4.36530e+01
      Ne  4.36500e+00  4.36530e+01  4.80180e+01
      Ne  0.00000e+00  4.80180e+01  4.80180e+01
      Ne  8.73100e+00  0.00000e+00  0.00000e+00
      Ne  1.30960e+01  4.36500e+00  0.00000e+00
      Ne  1.30960e+01  0.00000e+00  4.36500e+00
      Ne  8.73100e+00  4.36500e+00  4.36500e+00
      Ne  8.73100e+00  0.00000e+00  8.73100e+00
      Ne  1.30960e+01  4.36500e+00  8.73100e+00
      Ne  1.30960e+01  0.00000e+00  1.30960e+01
      Ne  8.73100e+00  4.36500e+00  1.30960e+01
      Ne  8.73100e+00  0.00000e+00  1.74610e+01
      Ne  1.30960e+01  4.36500e+00  1.74610e+01
      Ne  1.30960e+01  0.00000e+00  2.18260e+01
      Ne  8.73100e+00  4.36500e+00  2.18260e+01
      Ne  8.73100e+00  0.00000e+00  2.61920e+01
      Ne  1.30960e+01  4.36500e+00  2.61920e+01
      Ne  1.30960e+01  0.00000e+00  3.05570e+01
      Ne  8.73100e+00  4.36500e+00  3.05570e+01
      Ne  8.73100e+00  0.00000e+00  3.49220e+01
      Ne  1.30960e+01  4.36500e+00  3.49220e+01
      Ne  1.30960e+01  0.00000e+00  3.92870e+01
      Ne  8.73100e+00  4.36500e+00  3.92870e+01
      Ne  8.73100e+00  0.00000e+00  4.36530e+01
      Ne  1.30960e+01  4.36500e+00  4.36530e+01
      Ne  1.30960e+01  0.00000e+00  4.80180e+01
      Ne  8.73100e+00  4.36500e+00  4.80180e+01
      Ne  8.73100e+00  8.73100e+00  0.00000e+00
      Ne  1.30960e+01  1.30960e+01  0.00000e+00
      Ne  1.30960e+01  8.73100e+00  4.36500e+00
      Ne  8.73100e+00  1.30960e+01  4.36500e+00
      Ne  8.73100e+00  8.73100e+00  8.73100e+00
      Ne  1.30960e+01  1.30960e+01  8.73100e+00
      Ne  1.30960e+01  8.73100e+00  1.30960e+01
      Ne  8.73100e+00  1.30960e+01  1.30960e+01
      Ne  8.73100e+00  8.73100e+00  1.74610e+01
      Ne  1.30960e+01  1.30960e+01  1.74610e+01
      Ne  1.30960e+01  8.73100e+00  2.18260e+01
      Ne  8.73100e+00  1.30960e+01  2.18260e+01
      Ne  8.73100e+00  8.73100e+00  2.61920e+01
      Ne  1.30960e+01  1.30960e+01  2.61920e+01
      Ne  1.30960e+01  8.73100e+00  3.05570e+01
      Ne  8.73100e+00  1.30960e+01  3.05570e+01
      Ne  8.73100e+00  8.73100e+00  3.49220e+01
      Ne  1.30960e+01  1.30960e+01  3.49220e+01
      Ne  1.30960e+01  8.73100e+00  3.92870e+01
      Ne  8.73100e+00  1.30960e+01  3.92870e+01
      Ne  8.73100e+00  8.73100e+00  4.36530e+01
      Ne  1.30960e+01  1.30960e+01  4.36530e+01
      Ne  1.30960e+01  8.73100e+00  4.80180e+01
      Ne  8.73100e+00  1.30960e+01  4.80180e+01
      Ne  8.73100e+00  1.74610e+01  0.00000e+00
      Ne  1.30960e+01  2.18260e+01  0.00000e+00
      Ne  1.30960e+01  1.74610e+01  4.36500e+00
      Ne  8.73100e+00  2.18260e+01  4.36500e+00
      Ne  8.73100e+00  1.74610e+01  8.73100e+00
      Ne  1.30960e+01  2.18260e+01  8.73100e+00
      Ne  1.30960e+01  1.74610e+01  1.30960e+01
      Ne  8.73100e+00  2.18260e+01  1.30960e+01
      Ne  8.73100e+00  1.74610e+01  1.74610e+01
      Ne  1.30960e+01  2.18260e+01  1.74610e+01
      Ne  1.30960e+01  1.74610e+01  2.18260e+01
      Ne  8.73100e+00  2.18260e+01  2.18260e+01
      Ne  8.73100e+00  1.74610e+01  2.61920e+01
      Ne  1.30960e+01  2.18260e+01  2.61920e+01
      Ne  1.30960e+01  1.74610e+01  3.05570e+01
      Ne  8.73100e+00  2.18260e+01  3.05570e+01
      Ne  8.73100e+00  1.74610e+01  3.49220e+01
      Ne  1.30960e+01  2.18260e+01  3.49220e+01
      Ne  1.30960e+01  1.74610e+01  3.92870e+01
      Ne  8.73100e+00  2.18260e+01  3.92870e+01
      Ne  8.73100e+00  1.74610e+01  4.36530e+01
      Ne  1.30960e+01  2.18260e+01  4.36530e+01
      Ne  1.30960e+01  1.74610e+01  4.80180e+01
      Ne  8.73100e+00  2.18260e+01  4.80180e+01
      Ne  8.73100e+00  2.61920e+01  0.00000e+00
      Ne  1.30960e+01  3.05570e+01  0.00000e+00
      Ne  1.30960e+01  2.61920e+01  4.36500e+00
      Ne  8.73100e+00  3.05570e+01  4.36500e+00
      Ne  8.73100e+00  2.61920e+01  8.73100e+00
      Ne  1.30960e+01  3.05570e+01  8.73100e+00
      Ne  1.30960e+01  2.61920e+01  1.30960e+01
      Ne  8.73100e+00  3.05570e+01  1.30960e+01
      Ne  8.73100e+00  2.61920e+01  1.74610e+01
      Ne  1.30960e+01  3.05570e+01  1.74610e+01
      Ne  1.30960e+01  2.61920e+01  2.18260e+01
      Ne  8.73100e+00  3.05570e+01  2.18260e+01
      Ne  8.73100e+00  2.61920e+01  2.61920e+01
      Ne  1.30960e+01  3.05570e+01  2.61920e+01
      Ne  1.30960e+01  2.61920e+01  3.05570e+01
      Ne  8.73100e+00  3.05570e+01  3.05570e+01
      Ne  8.73100e+00  2.61920e+01  3.49220e+01
      Ne  1.30960e+01  3.05570e+01  3.49220e+01
      Ne  1.30960e+01  2.61920e+01  3.92870e+01
      Ne  8.73100e+00  3.05570e+01  3.92870e+01
      Ne  8.73100e+00  2.61920e+01  4.36530e+01
      Ne  1.30960e+01  3.05570e+01  4.36530e+01
      Ne  1.30960e+01  2.61920e+01  4.80180e+01
      Ne  8.73100e+00  3.05570e+01  4.80180e+01
      Ne  8.73100e+00  3.49220e+01  0.00000e+00
      Ne  1.30960e+01  3.92870e+01  0.00000e+00
      Ne  1.30960e+01  3.49220e+01  4.36500e+00
      Ne  8.73100e+00  3.92870e+01  4.36500e+00
      Ne  8.73100e+00  3.49220e+01  8.73100e+00
      Ne  1.30960e+01  3.92870e+01  8.73100e+00
      Ne  1.30960e+01  3.49220e+01  1.30960e+01
      Ne  8.73100e+00  3.92870e+01  1.30960e+01
      Ne  8.73100e+00  3.49220e+01  1.74610e+01
      Ne  1.30960e+01  3.92870e+01  1.74610e+01
      Ne  1.30960e+01  3.49220e+01  2.18260e+01
      Ne  8.73100e+00  3.92870e+01  2.18260e+01
      Ne  8.73100e+00  3.49220e+01  2.61920e+01
      Ne  1.30960e+01  3.92870e+01  2.61920e+01
      Ne  1.30960e+01  3.49220e+01  3.05570e+01
      Ne  8.73100e+00  3.92870e+01  3.05570e+01
      Ne  8.73100e+00  3.49220e+01  3.49220e+01
      Ne  1.30960e+01  3.92870e+01  3.49220e+01
      Ne  1.30960e+01  3.49220e+01  3.92870e+01
      Ne  8.73100e+00  3.92870e+01  3.92870e+01
      Ne  8.73100e+00  3.49220e+01  4.36530e+01
      Ne  1.30960e+01  3.92870e+01  4.36530e+01
      Ne  1.30960e+01  3.49220e+01  4.80180e+01
      Ne  8.73100e+00  3.92870e+01  4.80180e+01
      Ne  8.73100e+00  4.36530e+01  0.00000e+00
      Ne  1.30960e+01  4.80180e+01  0.00000e+00
      Ne  1.30960e+01  4.36530e+01  4.36500e+00
      Ne  8.73100e+00  4.80180e+01  4.36500e+00
      Ne  8.73100e+00  4.36530e+01  8.73100e+00
      Ne  1.30960e+01  4.80180e+01  8.73100e+00
      Ne  1.30960e+01  4.36530e+01  1.30960e+01
      Ne  8.73100e+00  4.80180e+01  1.30960e+01
      Ne  8.73100e+00  4.36530e+01  1.74610e+01
      Ne  1.30960e+01  4.80180e+01  1.74610e+01
      Ne  1.30960e+01  4.36530e+01  2.18260e+01
      Ne  8.73100e+00  4.80180e+01  2.18260e+01
      Ne  8.73100e+00  4.36530e+01  2.61920e+01
      Ne  1.30960e+01  4.80180e+01  2.61920e+01
      Ne  1.30960e+01  4.36530e+01  3.05570e+01
      Ne  8.73100e+00  4.80180e+01  3.05570e+01
      Ne  8.73100e+00  4.36530e+01  3.49220e+01
      Ne  1.30960e+01  4.80180e+01  3.49220e+01
      Ne  1.30960e+01  4.36530e+01  3.92870e+01
      Ne  8.73100e+00  4.80180e+01  3.92870e+01
      Ne  8.73100e+00  4.36530e+01  4.36530e+01
      Ne  1.30960e+01  4.80180e+01  4.36530e+01
      Ne  1.30960e+01  4.36530e+01  4.80180e+01
      Ne  8.73100e+00  4.80180e+01  4.80180e+01
      Ne  1.74610e+01  0.00000e+00  0.00000e+00
      Ne  2.18260e+01  4.36500e+00  0.00000e+00
      Ne  2.18260e+01  0.00000e+00  4.36500e+00
      Ne  1.74610e+01  4.36500e+00  4.36500e+00
      Ne  1.74610e+01  0.00000e+00  8.73100e+00
      Ne  2.18260e+01  4.36500e+00  8.73100e+00
      Ne  2.18260e+01  0.00000e+00  1.30960e+01
      Ne  1.74610e+01  4.36500e+00  1.30960e+01
      Ne  1.74610e+01  0.00000e+00  1.74610e+01
      Ne  2.18260e+01  4.36500e+00  1.74610e+01
      Ne  2.18260e+01  0.00000e+00  2.18260e+01
      Ne  1.74610e+01  4.36500e+00  2.18260e+01
      Ne  1.74610e+01  0.00000e+00  2.61920e+01
      Ne  2.18260e+01  4.36500e+00  2.61920e+01
      Ne  2.18260e+01  0.00000e+00  3.05570e+01
      Ne  1.74610e+01  4.36500e+00  3.05570e+01
      Ne  1.74610e+01  0.00000e+00  3.49220e+01
      Ne  2.18260e+01  4.36500e+00  3.49220e+01
      Ne  2.18260e+01  0.00000e+00  3.92870e+01
      Ne  1.74610e+01  4.36500e+00  3.92870e+01
      Ne  1.74610e+01  0.00000e+00  4.36530e+01
      Ne  2.18260e+01  4.36500e+00  4.36530e+01
      Ne  2.18260e+01  0.00000e+00  4.80180e+01
      Ne  1.74610e+01  4.36500e+00  4.80180e+01
      Ne  1.74610e+01  8.73100e+00  0.00000e+00
      Ne  2.18260e+01  1.30960e+01  0.00000e+00
      Ne  2.18260e+01  8.73100e+00  4.36500e+00
      Ne  1.74610e+01  1.30960e+01  4.36500e+00
      Ne  1.74610e+01  8.73100e+00  8.73100e+00
      Ne  2.18260e+01  1.30960e+01  8.73100e+00
      Ne  2.18260e+01  8.73100e+00  1.30960e+01
      Ne  1.74610e+01  1.30960e+01  1.30960e+01
      Ne  1.74610e+01  8.73100e+00  1.74610e+01
      Ne  2.18260e+01  1.30960e+01  1.74610e+01
      Ne  2.18260e+01  8.73100e+00  2.18260e+01
      Ne  1.74610e+01  1.30960e+01  2.18260e+01
      Ne  1.74610e+01  8.73100e+00  2.61920e+01
      Ne  2.18260e+01  1.30960e+01  2.61920e+01
      Ne  2.18260e+01  8.73100e+00  3.05570e+01
      Ne  1.74610e+01  1.30960e+01  3.05570e+01
      Ne  1.74610e+01  8.73100e+00  3.49220e+01
      Ne  2.18260e+01  1.30960e+01  3.49220e+01
      Ne  2.18260e+01  8.73100e+00  3.92870e+01
      Ne  1.74610e+01  1.30960e+01  3.92870e+01
      Ne  1.74610e+01  8.73100e+00  4.36530e+01
      Ne  2.18260e+01  1.30960e+01  4.36530e+01
      Ne  2.18260e+01  8.73100e+00  4.80180e+01
      Ne  1.74610e+01  1.30960e+01  4.80180e+01
      Ne  1.74610e+01  1.74610e+01  0.00000e+00
      Ne  2.18260e+01  2.18260e+01  0.00000e+00
      Ne  2.18260e+01  1.74610e+01  4.36500e+00
      Ne  1.74610e+01  2.18260e+01  4.36500e+00
      Ne  1.74610e+01  1.74610e+01  8.73100e+00
      Ne  2.18260e+01  2.18260e+01  8.73100e+00
      Ne  2.18260e+01  1.74610e+01  1.30960e+01
      Ne  1.74610e+01  2.18260e+01  1.30960e+01
      Ne  1.74610e+01  1.74610e+01  1.74610e+01
      Ne  2.18260e+01  2.18260e+01  1.74610e+01
      Ne  2.18260e+01  1.74610e+01  2.18260e+01
      Ne  1.74610e+01  2.18260e+01  2.18260e+01
      Ne  1.74610e+01  1.74610e+01  2.61920e+01
      Ne  2.18260e+01  2.18260e+01  2.61920e+01
      Ne  2.18260e+01  1.74610e+01  3.05570e+01
      Ne  1.74610e+01  2.18260e+01  3.05570e+01
      Ne  1.74610e+01  1.74610e+01  3.49220e+01
      Ne  2.18260e+01  2.18260e+01  3.49220e+01
      Ne  2.18260e+01  1.74610e+01  3.92870e+01
      Ne  1.74610e+01  2.18260e+01  3.92870e+01
      Ne  1.74610e+01  1.74610e+01  4.36530e+01
      Ne  2.18260e+01  2.18260e+01  4.36530e+01
      Ne  2.18260e+01  1.74610e+01  4.80180e+01
      Ne  1.74610e+01  2.18260e+01  4.80180e+01
      Ne  1.74610e+01  2.61920e+01  0.00000e+00
      Ne  2.18260e+01  3.05570e+01  0.00000e+00
      Ne  2.18260e+01  2.61920e+01  4.36500e+00
      Ne  1.74610e+01  3.05570e+01  4.36500e+00
      Ne  1.74610e+01  2.61920e+01  8.73100e+00
      Ne  2.18260e+01  3.05570e+01  8.73100e+00
      Ne  2.18260e+01  2.61920e+01  1.30960e+01
      Ne  1.74610e+01  3.05570e+01  1.30960e+01
      Ne  1.74610e+01  2.61920e+01  1.74610e+01
      Ne  2.18260e+01  3.05570e+01  1.74610e+01
      Ne  2.18260e+01  2.61920e+01  2.18260e+01
      Ne  1.74610e+01  3.05570e+01  2.18260e+01
      Ne  1.74610e+01  2.61920e+01  2.61920e+01
      Ne  2.18260e+01  3.05570e+01  2.61920e+01
      Ne  2.18260e+01  2.61920e+01  3.05570e+01
      Ne  1.74610e+01  3.05570e+01  3.05570e+01
      Ne  1.74610e+01  2.61920e+01  3.49220e+01
      Ne  2.18260e+01  3.05570e+01  3.49220e+01
      Ne  2.18260e+01  2.61920e+01  3.92870e+01
      Ne  1.74610e+01  3.05570e+01  3.92870e+01
      Ne  1.74610e+01  2.61920e+01  4.36530e+01
      Ne  2.18260e+01  3.05570e+01  4.36530e+01
      Ne  2.18260e+01  2.61920e+01  4.80180e+01
      Ne  1.74610e+01  3.05570e+01  4.80180e+01
      Ne  1.74610e+01  3.49220e+01  0.00000e+00
      Ne  2.18260e+01  3.92870e+01  0.00000e+00
      Ne  2.18260e+01  3.49220e+01  4.36500e+00
      Ne  1.74610e+01  3.92870e+01  4.36500e+00
      Ne  1.74610e+01  3.49220e+01  8.73100e+00
      Ne  2.18260e+01  3.92870e+01  8.73100e+00
      Ne  2.18260e+01  3.49220e+01  1.30960e+01
      Ne  1.74610e+01  3.92870e+01  1.30960e+01
      Ne  1.74610e+01  3.49220e+01  1.74610e+01
      Ne  2.18260e+01  3.92870e+01  1.74610e+01
      Ne  2.18260e+01  3.49220e+01  2.18260e+01
      Ne  1.74610e+01  3.92870e+01  2.18260e+01
      Ne  1.74610e+01  3.49220e+01  2.61920e+01
      Ne  2.18260e+01  3.92870e+01  2.61920e+01
      Ne  2.18260e+01  3.49220e+01  3.05570e+01
      Ne  1.74610e+01  3.92870e+01  3.05570e+01
      Ne  1.74610e+01  3.49220e+01  3.49220e+01
      Ne  2.18260e+01  3.92870e+01  3.49220e+01
      Ne  2.18260e+01  3.49220e+01  3.92870e+01
      Ne  1.74610e+01  3.92870e+01  3.92870e+01
      Ne  1.74610e+01  3.49220e+01  4.36530e+01
      Ne  2.18260e+01  3.92870e+01  4.36530e+01
      Ne  2.18260e+01  3.49220e+01  4.80180e+01
      Ne  1.74610e+01  3.92870e+01  4.80180e+01
      Ne  1.74610e+01  4.36530e+01  0.00000e+00
      Ne  2.18260e+01  4.80180e+01  0.00000e+00
      Ne  2.18260e+01  4.36530e+01  4.36500e+00
      Ne  1.74610e+01  4.80180e+01  4.36500e+00
      Ne  1.74610e+01  4.36530e+01  8.73100e+00
      Ne  2.18260e+01  4.80180e+01  8.73100e+00
      Ne  2.18260e+01  4.36530e+01  1.30960e+01
      Ne  1.74610e+01  4.80180e+01  1.30960e+01
      Ne  1.74610e+01  4.36530e+01  1.74610e+01
      Ne  2.18260e+01  4.80180e+01  1.74610e+01
      Ne  2.18260e+01  4.36530e+01  2.18260e+01
      Ne  1.74610e+01  4.80180e+01  2.18260e+01
      Ne  1.74610e+01  4.36530e+01  2.61920e+01
      Ne  2.18260e+01  4.80180e+01  2.61920e+01
      Ne  2.18260e+01  4.36530e+01  3.05570e+01
      Ne  1.74610e+01  4.80180e+01  3.05570e+01
      Ne  1.74610e+01  4.36530e+01  3.49220e+01
      Ne  2.18260e+01  4.80180e+01  3.49220e+01
      Ne  2.18260e+01  4.36530e+01  3.92870e+01
      Ne  1.74610e+01  4.80180e+01  3.92870e+01
      Ne  1.74610e+01  4.36530e+01  4.36530e+01
      Ne  2.18260e+01  4.80180e+01  4.36530e+01
      Ne  2.18260e+01  4.36530e+01  4.80180e+01
      Ne  1.74610e+01  4.80180e+01  4.80180e+01
      Ne  2.61920e+01  0.00000e+00  0.00000e+00
      Ne  3.05570e+01  4.36500e+00  0.00000e+00
      Ne  3.05570e+01  0.00000e+00  4.36500e+00
      Ne  2.61920e+01  4.36500e+00  4.36500e+00
      Ne  2.61920e+01  0.00000e+00  8.73100e+00
      Ne  3.05570e+01  4.36500e+00  8.73100e+00
      Ne  3.05570e+01  0.00000e+00  1.30960e+01
      Ne  2.61920e+01  4.36500e+00  1.30960e+01
      Ne  2.61920e+01  0.00000e+00  1.74610e+01
      Ne  3.05570e+01  4.36500e+00  1.74610e+01
      Ne  3.05570e+01  0.00000e+00  2.18260e+01
      Ne  2.61920e+01  4.36500e+00  2.18260e+01
      Ne  2.61920e+01  0.00000e+00  2.61920e+01
      Ne  3.05570e+01  4.36500e+00  2.61920e+01
      Ne  3.05570e+01  0.00000e+00  3.05570e+01
      Ne  2.61920e+01  4.36500e+00  3.05570e+01
      Ne  2.61920e+01  0.00000e+00  3.49220e+01
      Ne  3.05570e+01  4.36500e+00  3.49220e+01
      Ne  3.05570e+01  0.00000e+00  3.92870e+01
      Ne  2.61920e+01  4.36500e+00  3.92870e+01
      Ne  2.61920e+01  0.00000e+00  4.36530e+01
      Ne  3.05570e+01  4.36500e+00  4.36530e+01
      Ne  3.05570e+01  0.00000e+00  4.80180e+01
      Ne  2.61920e+01  4.36500e+00  4.80180e+01
      Ne  2.61920e+01  8.73100e+00  0.00000e+00
      Ne  3.05570e+01  1.30960e+01  0.00000e+00
      Ne  3.05570e+01  8.73100e+00  4.36500e+00
      Ne  2.61920e+01  1.30960e+01  4.36500e+00
      Ne  2.61920e+01  8.73100e+00  8.73100e+00
      Ne  3.05570e+01  1.30960e+01  8.73100e+00
      Ne  3.05570e+01  8.73100e+00  1.30960e+01
      Ne  2.61920e+01  1.30960e+01  1.30960e+01
      Ne  2.61920e+01  8.73100e+00  1.74610e+01
      Ne  3.05570e+01  1.30960e+01  1.74610e+01
      Ne  3.05570e+01  8.73100e+00  2.18260e+01
      Ne  2.61920e+01  1.30960e+01  2.18260e+01
      Ne  2.61920e+01  8.73100e+00  2.61920e+01
      Ne  3.05570e+01  1.30960e+01  2.61920e+01
      Ne  3.05570e+01  8.73100e+00  3.05570e+01
      Ne  2.61920e+01  1.30960e+01  3.05570e+01
      Ne  2.61920e+01  8.73100e+00  3.49220e+01
      Ne  3.05570e+01  1.30960e+01  3.49220e+01
      Ne  3.05570e+01  8.73100e+00  3.92870e+01
      Ne  2.61920e+01  1.30960e+01  3.92870e+01
      Ne  2.61920e+01  8.73100e+00  4.36530e+01
      Ne  3.05570e+01  1.30960e+01  4.36530e+01
      Ne  3.05570e+01  8.73100e+00  4.80180e+01
      Ne  2.61920e+01  1.30960e+01  4.80180e+01
      Ne  2.61920e+01  1.74610e+01  0.00000e+00
      Ne  3.05570e+01  2.18260e+01  0.00000e+00
      Ne  3.05570e+01  1.74610e+01  4.36500e+00
      Ne  2.61920e+01  2.18260e+01  4.36500e+00
      Ne  2.61920e+01  1.74610e+01  8.73100e+00
      Ne  3.05570e+01  2.18260e+01  8.73100e+00
      Ne  3.05570e+01  1.74610e+01  1.30960e+01
      Ne  2.61920e+01  2.18260e+01  1.30960e+01
      Ne  2.61920e+01  1.74610e+01  1.74610e+01
      Ne  3.05570e+01  2.18260e+01  1.74610e+01
      Ne  3.05570e+01  1.74610e+01  2.18260e+01
      Ne  2.61920e+01  2.18260e+01  2.18260e+01
      Ne  2.61920e+01  1.74610e+01  2.61920e+01
      Ne  3.05570e+01  2.18260e+01  2.61920e+01
      Ne  3.05570e+01  1.74610e+01  3.05570e+01
      Ne  2.61920e+01  2.18260e+01  3.05570e+01
      Ne  2.61920e+01  1.74610e+01  3.49220e+01
      Ne  3.05570e+01  2.18260e+01  3.49220e+01
      Ne  3.05570e+01  1.74610e+01  3.92870e+01
      Ne  2.61920e+01  2.18260e+01  3.92870e+01
      Ne  2.61920e+01  1.74610e+01  4.36530e+01
      Ne  3.05570e+01  2.18260e+01  4.36530e+01
      Ne  3.05570e+01  1.74610e+01  4.80180e+01
      Ne  2.61920e+01  2.18260e+01  4.80180e+01
      Ne  2.61920e+01  2.61920e+01  0.00000e+00
      Ne  3.05570e+01  3.05570e+01  0.00000e+00
      Ne  3.05570e+01  2.61920e+01  4.36500e+00
      Ne  2.61920e+01  3.05570e+01  4.36500e+00
      Ne  2.61920e+01  2.61920e+01  8.73100e+00
      Ne  3.05570e+01  3.05570e+01  8.73100e+00
      Ne  3.05570e+01  2.61920e+01  1.30960e+01
      Ne  2.61920e+01  3.05570e+01  1.30960e+01
      Ne  2.61920e+01  2.61920e+01  1.74610e+01
      Ne  3.05570e+01  3.05570e+01  1.74610e+01
      Ne  3.05570e+01  2.61920e+01  2.18260e+01
      Ne  2.61920e+01  3.05570e+01  2.18260e+01
      Ne  2.61920e+01  2.61920e+01  2.61920e+01
      Ne  3.05570e+01  3.05570e+01  2.61920e+01
      Ne  3.05570e+01  2.61920e+01  3.05570e+01
      Ne  2.61920e+01  3.05570e+01  3.05570e+01
      Ne  2.61920e+01  2.61920e+01  3.49220e+01
      Ne  3.05570e+01  3.05570e+01  3.49220e+01
      Ne  3.05570e+01  2.61920e+01  3.92870e+01
      Ne  2.61920e+01  3.05570e+01  3.92870e+01
      Ne  2.61920e+01  2.61920e+01  4.36530e+01
      Ne  3.05570e+01  3.05570e+01  4.36530e+01
      Ne  3.05570e+01  2.61920e+01  4.80180e+01
      Ne  2.61920e+01  3.05570e+01  4.80180e+01
      Ne  2.61920e+01  3.49220e+01  0.00000e+00
      Ne  3.05570e+01  3.92870e+01  0.00000e+00
      Ne  3.05570e+01  3.49220e+01  4.36500e+00
      Ne  2.61920e+01  3.92870e+01  4.36500e+00
      Ne  2.61920e+01  3.49220e+01  8.73100e+00
      Ne  3.05570e+01  3.92870e+01  8.73100e+00
      Ne  3.05570e+01  3.49220e+01  1.30960e+01
      Ne  2.61920e+01  3.92870e+01  1.30960e+01
      Ne  2.61920e+01  3.49220e+01  1.74610e+01
      Ne  3.05570e+01  3.92870e+01  1.74610e+01
      Ne  3.05570e+01  3.49220e+01  2.18260e+01
      Ne  2.61920e+01  3.92870e+01  2.18260e+01
      Ne  2.61920e+01  3.49220e+01  2.61920e+01
      Ne  3.05570e+01  3.92870e+01  2.61920e+01
      Ne  3.05570e+01  3.49220e+01  3.05570e+01
      Ne  2.61920e+01  3.92870e+01  3.05570e+01
      Ne  2.61920e+01  3.49220e+01  3.49220e+01
      Ne  3.05570e+01  3.92870e+01  3.49220e+01
      Ne  3.05570e+01  3.49220e+01  3.92870e+01
      Ne  2.61920e+01  3.92870e+01  3.92870e+01
      Ne  2.61920e+01  3.49220e+01  4.36530e+01
      Ne  3.05570e+01  3.92870e+01  4.36530e+01
      Ne  3.05570e+01  3.49220e+01  4.80180e+01
      Ne  2.61920e+01  3.92870e+01  4.80180e+01
      Ne  2.61920e+01  4.36530e+01  0.00000e+00
      Ne  3.05570e+01  4.80180e+01  0.00000e+00
      Ne  3.05570e+01  4.36530e+01  4.36500e+00
      Ne  2.61920e+01  4.80180e+01  4.36500e+00
      Ne  2.61920e+01  4.36530e+01  8.73100e+00
      Ne  3.05570e+01  4.80180e+01  8.73100e+00
      Ne  3.05570e+01  4.36530e+01  1.30960e+01
      Ne  2.61920e+01  4.80180e+01  1.30960e+01
      Ne  2.61920e+01  4.36530e+01  1.74610e+01
      Ne  3.05570e+01  4.80180e+01  1.74610e+01
      Ne  3.05570e+01  4.36530e+01  2.18260e+01
      Ne  2.61920e+01  4.80180e+01  2.18260e+01
      Ne  2.61920e+01  4.36530e+01  2.61920e+01
      Ne  3.05570e+01  4.80180e+01  2.61920e+01
      Ne  3.05570e+01  4.36530e+01  3.05570e+01
      Ne  2.61920e+01  4.80180e+01  3.05570e+01
      Ne  2.61920e+01  4.36530e+01  3.49220e+01
      Ne  3.05570e+01  4.80180e+01  3.49220e+01
      Ne  3.05570e+01  4.36530e+01  3.92870e+01
      Ne  2.61920e+01  4.80180e+01  3.92870e+01
      Ne  2.61920e+01  4.36530e+01  4.36530e+01
      Ne  3.05570e+01  4.80180e+01  4.36530e+01
      Ne  3.05570e+01  4.36530e+01  4.80180e+01
      Ne  2.61920e+01  4.80180e+01  4.80180e+01
      Ne  3.49220e+01  0.00000e+00  0.00000e+00
      Ne  3.92870e+01  4.36500e+00  0.00000e+00
      Ne  3.92870e+01  0.00000e+00  4.36500e+00
      Ne  3.49220e+01  4.36500e+00  4.36500e+00
      Ne  3.49220e+01  0.00000e+00  8.73100e+00
      Ne  3.92870e+01  4.36500e+00  8.73100e+00
      Ne  3.92870e+01  0.00000e+00  1.30960e+01
      Ne  3.49220e+01  4.36500e+00  1.30960e+01
      Ne  3.49220e+01  0.00000e+00  1.74610e+01
      Ne  3.92870e+01  4.36500e+00  1.74610e+01
      Ne  3.92870e+01  0.00000e+00  2.18260e+01
      Ne  3.49220e+01  4.36500e+00  2.18260e+01
      Ne  3.49220e+01  0.00000e+00  2.61920e+01
      Ne  3.92870e+01  4.36500e+00  2.61920e+01
      Ne  3.92870e+01  0.00000e+00  3.05570e+01
      Ne  3.49220e+01  4.36500e+00  3.05570e+01
      Ne  3.49220e+01  0.00000e+00  3.49220e+01
      Ne  3.92870e+01  4.36500e+00  3.49220e+01
      Ne  3.92870e+01  0.00000e+00  3.92870e+01
      Ne  3.49220e+01  4.36500e+00  3.92870e+01
      Ne  3.49220e+01  0.00000e+00  4.36530e+01
      Ne  3.92870e+01  4.36500e+00  4.36530e+01
      Ne  3.92870e+01  0.00000e+00  4.80180e+01
      Ne  3.49220e+01  4.36500e+00  4.80180e+01
      Ne  3.49220e+01  8.73100e+00  0.00000e+00
      Ne  3.92870e+01  1.30960e+01  0.00000e+00
      Ne  3.92870e+01  8.73100e+00  4.36500e+00
      Ne  3.49220e+01  1.30960e+01  4.36500e+00
      Ne  3.49220e+01  8.73100e+00  8.73100e+00
      Ne  3.92870e+01  1.30960e+01  8.73100e+00
      Ne  3.92870e+01  8.73100e+00  1.30960e+01
      Ne  3.49220e+01  1.30960e+01  1.30960e+01
      Ne  3.49220e+01  8.73100e+00  1.74610e+01
      Ne  3.92870e+01  1.30960e+01  1.74610e+01
      Ne  3.92870e+01  8.73100e+00  2.18260e+01
      Ne  3.49220e+01  1.30960e+01  2.18260e+01
      Ne  3.49220e+01  8.73100e+00  2.61920e+01
      Ne  3.92870e+01  1.30960e+01  2.61920e+01
      Ne  3.92870e+01  8.73100e+00  3.05570e+01
      Ne  3.49220e+01  1.30960e+01  3.05570e+01
      Ne  3.49220e+01  8.73100e+00  3.49220e+01
      Ne  3.92870e+01  1.30960e+01  3.49220e+01
      Ne  3.92870e+01  8.73100e+00  3.92870e+01
      Ne  3.49220e+01  1.30960e+01  3.92870e+01
      Ne  3.49220e+01  8.73100e+00  4.36530e+01